DF-ISE text

Info {
  version = 1.0
  type    = dataset
  dimension   = 3
  nb_vertices = 2355
  nb_edges    = 10742
  nb_faces    = 14696
  nb_elements = 6518
  nb_regions  = 27
  datasets    = [ "ElectrostaticPotential" "ElectrostaticPotential" "ElectrostaticPotential" "ElectrostaticPotential" "ElectrostaticPotential" "ElectrostaticPotential" "ElectrostaticPotential" "eDensity" "hDensity" "LatticeTemperature" "LatticeTemperature" "LatticeTemperature" "LatticeTemperature" "LatticeTemperature" "LatticeTemperature" "LatticeTemperature" "eCurrentDensity" "hCurrentDensity" "ElectricField" "ElectricField" "ElectricField" "ElectricField" "ElectricField" "ElectricField" "ElectricField" "eEparallel" "hEparallel" "eMobility" "hMobility" "eVelocity" "hVelocity" "TotalRecombination" "ImpactIonization" "eImpactIonization" "hImpactIonization" "eQuasiFermiPotential" "eQuasiFermiPotential" "eQuasiFermiPotential" "eQuasiFermiPotential" "eQuasiFermiPotential" "eQuasiFermiPotential" "eQuasiFermiPotential" "hQuasiFermiPotential" "hQuasiFermiPotential" "hQuasiFermiPotential" "hQuasiFermiPotential" "hQuasiFermiPotential" "hQuasiFermiPotential" "hQuasiFermiPotential" "srhRecombination" "TotalCurrentDensity" "TotalCurrentDensity" "TotalCurrentDensity" "TotalCurrentDensity" "TotalCurrentDensity" "TotalCurrentDensity" "TotalCurrentDensity" "DopingConcentration" "SpaceCharge" "HeavyIonGeneration" "HeavyIonGeneration" "HeavyIonGeneration" "HeavyIonGeneration" "HeavyIonGeneration" "HeavyIonGeneration" "HeavyIonGeneration" "QuasiFermiPotential" "QuasiFermiPotential" "QuasiFermiPotential" "QuasiFermiPotential" "QuasiFermiPotential" "QuasiFermiPotential" "QuasiFermiPotential" "TrapOccupation_0(Ac,Le)" "TrapOccupation_1(Do,Le)" ]
  functions   = [ ElectrostaticPotential ElectrostaticPotential ElectrostaticPotential ElectrostaticPotential ElectrostaticPotential ElectrostaticPotential ElectrostaticPotential eDensity hDensity LatticeTemperature LatticeTemperature LatticeTemperature LatticeTemperature LatticeTemperature LatticeTemperature LatticeTemperature eCurrentDensity hCurrentDensity ElectricField ElectricField ElectricField ElectricField ElectricField ElectricField ElectricField eEparallel hEparallel eMobility hMobility eVelocity hVelocity TotalRecombination ImpactIonization eImpactIonization hImpactIonization eQuasiFermiPotential eQuasiFermiPotential eQuasiFermiPotential eQuasiFermiPotential eQuasiFermiPotential eQuasiFermiPotential eQuasiFermiPotential hQuasiFermiPotential hQuasiFermiPotential hQuasiFermiPotential hQuasiFermiPotential hQuasiFermiPotential hQuasiFermiPotential hQuasiFermiPotential srhRecombination TotalCurrentDensity TotalCurrentDensity TotalCurrentDensity TotalCurrentDensity TotalCurrentDensity TotalCurrentDensity TotalCurrentDensity DopingConcentration SpaceCharge HeavyIonGeneration HeavyIonGeneration HeavyIonGeneration HeavyIonGeneration HeavyIonGeneration HeavyIonGeneration HeavyIonGeneration QuasiFermiPotential QuasiFermiPotential QuasiFermiPotential QuasiFermiPotential QuasiFermiPotential QuasiFermiPotential QuasiFermiPotential TrapOccupation_0(Ac,Le) TrapOccupation_1(Do,Le) ]
}

Data {

  Dataset ("ElectrostaticPotential") {
    function  = ElectrostaticPotential
    type      = scalar
    dimension = 1
    location  = vertex
    validity  = [ "gate" ]
    Values (18) {
 -2.244115333388924e-02 8.975581519891250e-01 8.975581519891250e-01 8.975581519891250e-01 -2.244115333388924e-02 8.975581519891250e-01 -2.244115333388921e-02 -2.244115333388931e-02 8.975581519891250e-01 -2.244115333388924e-02
 8.975581519891250e-01 -2.244115333388931e-02 8.975581519891250e-01 8.975581519891250e-01 8.975581519891250e-01 -2.244115333388931e-02 -2.244115333388931e-02 -2.244115333388924e-02
    }
  }

  Dataset ("ElectrostaticPotential") {
    function  = ElectrostaticPotential
    type      = scalar
    dimension = 1
    location  = vertex
    validity  = [ "oxide1" ]
    Values (16) {
 8.975581519891250e-01 8.975581519891250e-01 4.201348357296794e-01 8.975581519891250e-01 8.975581519891250e-01 3.236978681076567e-01 8.975581519891250e-01 3.236978681076567e-01 -2.244115333388931e-02 8.975581519891250e-01
 8.975581519891250e-01 8.975581519891250e-01 2.997436507789742e-01 4.201348357296794e-01 -2.244115333388931e-02 -2.244115333388924e-02
    }
  }

  Dataset ("ElectrostaticPotential") {
    function  = ElectrostaticPotential
    type      = scalar
    dimension = 1
    location  = vertex
    validity  = [ "gate1" ]
    Values (30) {
 8.975581519891250e-01 8.975581519891250e-01 8.975581519891250e-01 8.975581519891250e-01 8.975581519891250e-01 -2.441848010875471e-03 8.975581519891250e-01 8.975581519891250e-01 8.975581519891250e-01 -2.441848010875471e-03
 -2.441848010875471e-03 8.975581519891250e-01 8.975581519891250e-01 8.975581519891250e-01 8.975581519891250e-01 8.975581519891250e-01 8.975581519891250e-01 8.975581519891250e-01 8.975581519891250e-01 8.975581519891250e-01
 8.975581519891250e-01 -2.441848010875471e-03 -2.441848010875471e-03 -2.441848010875471e-03 8.975581519891250e-01 8.975581519891250e-01 -2.441848010875471e-03 8.975581519891250e-01 -2.441848010875471e-03 -2.441848010875471e-03

    }
  }

  Dataset ("ElectrostaticPotential") {
    function  = ElectrostaticPotential
    type      = scalar
    dimension = 1
    location  = vertex
    validity  = [ "oxide2" ]
    Values (16) {
 4.201348357296795e-01 -2.244115333388924e-02 8.975581519891250e-01 8.975581519891250e-01 -2.244115333388931e-02 3.236978681076567e-01 8.975581519891250e-01 2.997436507789741e-01 8.975581519891250e-01 8.975581519891250e-01
 4.201348357296794e-01 3.236978681076568e-01 8.975581519891250e-01 8.975581519891250e-01 8.975581519891250e-01 -2.244115333388931e-02
    }
  }

  Dataset ("ElectrostaticPotential") {
    function  = ElectrostaticPotential
    type      = scalar
    dimension = 1
    location  = vertex
    validity  = [ "oxide3" ]
    Values (12) {
 8.975581519891250e-01 3.200032719759637e-01 8.975581519891250e-01 -2.244115333388924e-02 8.975581519891250e-01 8.975581519891250e-01 3.236978681076567e-01 -2.244115333388931e-02 8.975581519891250e-01 3.236978681076568e-01
 8.975581519891250e-01 -2.244115333388931e-02
    }
  }

  Dataset ("ElectrostaticPotential") {
    function  = ElectrostaticPotential
    type      = scalar
    dimension = 1
    location  = vertex
    validity  = [ "oxide4" ]
    Values (12) {
 8.975581519891250e-01 3.200032719759637e-01 8.975581519891250e-01 8.975581519891250e-01 -2.244115333388931e-02 3.236978681076567e-01 8.975581519891250e-01 3.236978681076567e-01 8.975581519891250e-01 -2.244115333388924e-02
 8.975581519891250e-01 -2.244115333388931e-02
    }
  }

  Dataset ("ElectrostaticPotential") {
    function  = ElectrostaticPotential
    type      = scalar
    dimension = 1
    location  = vertex
    validity  = [ "bulk" ]
    Values (2325) {
 -1.215179577442286e+01 -3.956292131170594e+01 -1.778142951481535e+01 -4.380868383530617e+00 -4.327516254957146e+01 -4.672378011553452e+01 -1.138350285527005e+01 -3.676347603505792e+01 -3.416286838154864e+01 4.201348357296795e-01
 -4.740221168928933e+01 -3.891760200962002e+01 -4.416259858788744e+01 -1.754602173610340e+01 -4.191407880292945e+01 -1.635643704786487e+01 -3.676347603505792e+01 -1.707270480230772e+01 -3.859192412009300e+01 -3.859192412009300e+01
 -9.030036859594604e+00 -3.907968184184388e+01 -2.715452144863110e+01 -4.282547848445164e+01 -2.054231582995688e+01 -4.267469692688960e+01 -2.031669651204674e+01 -7.690604786693546e+00 -1.391351372568205e+01 -3.642405918497901e+01
 -2.387034667106805e+00 -2.187936581372354e+01 -2.674943037269490e+01 -4.993078537871932e+01 -4.416259858788744e+01 -1.138350285527005e+01 -1.894606636362207e+01 -3.048571890661918e+01 -1.440898645423370e+01 -4.856376628825748e+01
 -1.940618285806966e+01 -2.275506319161750e+01 -1.341455718124150e+01 -4.176060107064503e+01 -3.398486370617938e+01 -4.503395409039053e+01 -4.856376628825748e+01 -2.446966159559369e+01 -4.327516254957146e+01 -3.217145601879552e+01
 -2.674943037269490e+01 -3.161531638107989e+01 -7.419945638162506e+00 -3.235557406968562e+01 -6.327992383078098e+00 -4.445486029561354e+01 -1.707270480230772e+01 -3.826420144694298e+01 -4.051616669245916e+01 -4.083007816333932e+01
 -2.187936581372354e+01 -7.419945638162506e+00 -1.366447216019776e+01 -3.940233848417130e+01 -3.842831992584281e+01 -3.344725493987107e+01 -4.686089178166610e+01 -3.362706017922554e+01 -4.297581596041222e+01 -1.707270480230772e+01
 -4.401579888187925e+01 -4.915473628524825e+01 -4.880646048429150e+01 -4.357274207864924e+01 -3.247300733539400e+00 -1.563255673540824e+01 -1.391351372568205e+01 -2.613642282601977e+01 -3.105343228470896e+01 -4.941924016476563e+00
 -4.856376628825748e+01 -3.105343228470896e+01 -3.451709954219465e+01 -2.244115333388924e-02 -1.538955971730359e+01 -3.272193641294944e+01 -3.776872917229905e+01 -2.971955416604622e+01 -4.941924016476563e+00 -3.290418704784950e+01
 -9.559382072047550e+00 -2.551689880264151e+01 -4.818748092750167e+01 -4.546337965313187e+01 -1.635643704786487e+01 -1.138350285527005e+01 -3.521853873110602e+01 -1.611599286025078e+01 -4.129742292012192e+01 -1.138350285527005e+01
 -1.917653182347607e+01 -3.142866415271222e+01 -1.265954734024298e+01 -4.517757213285759e+01 -2.654581363131393e+01 -3.457725062089942e-01 -3.793440919543957e+01 -9.030036859594604e+00 -3.924125965997484e+01 -3.608243362692814e+01
 -2.530892889816408e+01 -3.743578562529559e+01 -4.658602252207274e+01 -4.740221168928933e+01 -1.112561820559072e+01 -2.318827826365377e+01 -4.145227538558537e+01 -3.676347603505792e+01 -3.760252236582301e+01 -2.031669651204674e+01
 -4.831435556555631e+01 -1.366447216019776e+01 -7.960336702906805e+00 -3.591078459242403e+01 -3.710070969843705e+01 -2.209945559904496e+01 -5.221027198386157e+00 -2.815489187880196e+01 -1.008508171078740e+01 -3.956292131170594e+01
 -2.489077862384812e+01 -4.937355791129749e+01 -2.404555457205659e+01 -2.674943037269490e+01 -4.957856859367242e+01 -6.052663902755195e+00 -4.051616669245916e+01 -4.818748092750167e+01 -4.574722679012729e+01 -8.229143620374417e+00
 -3.521853873110602e+01 -4.372086970373246e+01 -8.229143620374417e+00 -3.362706017922554e+01 -7.419945638162506e+00 -4.976603541754950e+01 -3.809956557664501e+01 -1.138350285527005e+01 -5.776394988423533e+00 -3.972301111470061e+01
 -8.229143620374417e+00 -3.029517111845892e+01 -4.672378011553452e+01 -1.894606636362207e+01 -4.327516254957146e+01 -4.380868383530617e+00 -1.416168433474054e+01 -4.805931447123744e+01 -2.143683858311904e+01 -4.644764596962863e+01
 -3.416286838154864e+01 -4.766800180619443e+01 -1.034657019828619e+01 -4.460031759058317e+01 -3.924125965997484e+01 -2.991209185375102e+01 -5.499183472896862e+00 -4.267469692688960e+01 -4.020035166670200e+01 -4.004172339470273e+01
 -1.824975676413213e+01 -2.695233198148027e+01 -4.967477729360967e+01 -4.602902850387139e+01 -1.778142951481535e+01 -2.654581363131393e+01 -3.344725493987107e+01 -1.824975676413213e+01 -4.517757213285759e+01 -4.051616669245916e+01
 -3.842831992584281e+01 -3.198670916017659e+01 -4.386855554475957e+01 -4.726802796359341e+01 -1.940618285806966e+01 -3.693236417253544e+01 -1.391351372568205e+01 -4.252347005846082e+01 -1.801600698303638e+01 -1.316376634157931e+01
 -4.416259858788744e+01 -1.683479044909978e+01 -3.710070969843705e+01 -4.985164823452120e+01 -4.114210755009064e+01 -4.993078537871932e+01 -7.419945638162506e+00 -3.815999573319138e+00 -2.991209185375102e+01 -3.362706017922554e+01
 -4.672378011553452e+01 -3.676347603505792e+01 -2.551689880264151e+01 -4.145227538558537e+01 -8.763991441199639e+00 -5.499183472896862e+00 -3.486898111848369e+01 -3.010396313703093e+01 -3.486898111848369e+01 -1.659603538917876e+01
 -4.686089178166610e+01 -4.976603541754950e+01 -4.574722679012729e+01 -3.659404210201060e+01 -3.198670916017659e+01 -3.308582155969017e+01 -1.587470027121067e+01 -2.654581363131393e+01 -1.008508171078740e+01 -4.957856859367242e+01
 -1.518057723089895e+00 -2.165849440337601e+01 -2.361843444948929e+01 -1.683479044909978e+01 -2.894267753701241e+01 -2.446966159559369e+01 -4.191407880292945e+01 -6.403148759105756e-01 -1.189658926588532e+01 -2.551689880264151e+01
 -4.792995545985405e+01 -3.086484636673450e+01 -2.231876655343581e+01 -9.822686438896694e+00 -2.121439557732156e+01 -4.937355791129749e+01 -4.644764596962863e+01 -3.659404210201060e+01 -3.842831992584281e+01 -3.180133033303319e+01
 -4.430895308480505e+01 -4.926568209529493e+01 -2.340373729424545e+01 -4.191407880292945e+01 -8.763991441199639e+00 -4.699732714805763e+01 -3.142866415271222e+01 -2.231876655343581e+01 -3.907968184184388e+01 -4.985164823452120e+01
 -9.338731817466107e-01 -2.674755159513384e+00 -3.988261083764875e+01 -2.755677596037570e+01 -4.546337965313187e+01 -1.316376634157931e+01 -3.676347603505792e+01 -2.253730148016219e+01 -1.871478380686082e+01 -1.215179577442286e+01
 -1.514570669115900e+01 -3.362706017922554e+01 -1.986305238600788e+01 -2.009027627051799e+01 -3.272193641294944e+01 -4.644764596962863e+01 -4.503395409039053e+01 -4.460031759058317e+01 -8.763991441199639e+00 -5.221027198386157e+00
 -4.658602252207274e+01 -3.434027926049133e+01 -1.465542256083750e+01 -1.963502214864344e+01 -6.403148759105756e-01 -3.659404210201060e+01 -1.963502214864344e+01 -2.510022314734428e+01 -2.297205450927749e+01 -3.608243362692814e+01
 -6.327992383078098e+00 -4.779949188234148e+01 -4.868603200025137e+01 -4.588838956589118e+01 -1.808687991304012e+00 -1.730978103324462e+01 -4.574722679012729e+01 -4.699732714805763e+01 -4.517757213285759e+01 -2.971955416604622e+01
 -4.805931447123744e+01 -1.226453459869681e+00 -1.538955971730359e+01 -2.835287173228527e+01 -2.275506319161750e+01 -1.683479044909978e+01 -4.114210755009064e+01 -1.366447216019776e+01 -2.634147877417951e+01 -3.642405918497901e+01
 -2.961509826605685e+00 -4.560555305254605e+01 -4.792995545985405e+01 -2.755677596037570e+01 -4.915473628524825e+01 -4.880646048429150e+01 -4.985164823452120e+01 -3.326684312905160e+01 -3.842831992584281e+01 -3.416286838154864e+01
 -3.809956557664501e+01 -3.907968184184388e+01 -1.291209720378635e+01 -2.253730148016219e+01 -4.176060107064503e+01 -5.221027198386157e+00 -4.445486029561354e+01 -3.504404881840005e+01 -4.474532172755866e+01 -4.342417302109261e+01
 -4.831435556555631e+01 -4.957856859367242e+01 -3.434027926049133e+01 -4.380868383530617e+00 -2.991209185375102e+01 -3.253906647797646e+01 -3.676347603505792e+01 -4.297581596041222e+01 -2.297205450927749e+01 -3.486898111848369e+01
 -3.086484636673450e+01 -4.035849849791420e+01 -1.060715422165391e+01 -4.114210755009064e+01 -3.469333242747486e+01 -3.608243362692814e+01 -4.129742292012192e+01 -3.532129954617940e+00 -3.326684312905160e+01 -3.743578562529559e+01
 -4.067335901038222e+01 -2.530892889816408e+01 -3.693236417253544e+01 -2.874676150778959e+01 -6.403148613935421e-01 -3.217145601879552e+01 -3.142866415271222e+01 -4.282547848445164e+01 -3.048571890661918e+01 -1.226453459869681e+00
 -2.654581363131393e+01 -1.963502214864344e+01 -4.926568209529493e+01 -4.880646048429150e+01 -4.957856859367242e+01 -3.556579801186393e+01 -4.805931447123744e+01 -3.010396313703093e+01 -2.098346293350927e+00 -2.275506319161750e+01
 -2.735600177282639e+01 -4.083007816333932e+01 -3.793440919543957e+01 -2.383237258670795e+01 -4.560555305254605e+01 -2.510022314734428e+01 -4.460031759058317e+01 -7.960336702906805e+00 -4.430895308480505e+01 -3.398486370617938e+01
 -4.904103885693455e+01 -1.514570669115900e+01 -4.532071647606367e+01 -2.076713695307155e+01 -3.161531638107989e+01 -3.776872917229905e+01 -3.067560961597525e+01 -3.539245406084544e+01 3.200032719759637e-01 -3.625352409175601e+01
 -4.474532172755866e+01 -2.489077862384812e+01 -1.366447216019776e+01 -1.240611433312998e+01 -2.318827826365377e+01 -2.031669651204674e+01 -1.366447216019776e+01 -2.654581363131393e+01 -3.972301111470061e+01 -2.143683858311904e+01
 -4.831435556555631e+01 -1.240611433312998e+01 -2.404555457205659e+01 -4.532071647606367e+01 -1.707270480230772e+01 -4.779949188234148e+01 -2.674755159513384e+00 -1.366447216019776e+01 -2.971955416604622e+01 -3.826420144694298e+01
 -5.000244184201221e+01 -9.338731818065776e-01 -1.265954734024298e+01 -4.206710263816958e+01 -4.357274207864924e+01 -2.275506319161750e+01 -3.907968184184388e+01 -4.342417302109261e+01 -4.957856859367242e+01 -2.674755159513384e+00
 -1.808687991304012e+00 -5.000244184201221e+01 -4.445486029561354e+01 -1.112561820559072e+01 -3.815999573319138e+00 -2.530892889816408e+01 -3.416286838154864e+01 -2.795621798838705e+01 -1.611599286025078e+01 -3.253906647797646e+01
 -1.894606636362207e+01 -2.361843444948929e+01 -3.105343228470896e+01 -4.237179646602599e+01 -4.035849849791420e+01 -5.000244184201221e+01 -4.004172339470273e+01 -3.048571890661918e+01 -1.112561820559072e+01 -5.221027198386157e+00
 -2.098346293350927e+00 -2.795621798838705e+01 -1.265954734024298e+01 -3.815999573319138e+00 -2.654581363131393e+01 -8.497027782232514e+00 -1.086683611085910e+01 -2.383237258670795e+01 -3.451709954219465e+01 -1.034657019828619e+01
 -2.613642282601977e+01 -5.221027198386157e+00 -3.776872917229905e+01 -6.875836757563930e+00 -4.114210755009064e+01 -4.372086970373246e+01 -6.327992383078098e+00 -4.401579888187925e+01 -4.098911682321588e+00 -4.297581596041222e+01
 -2.231876655343581e+01 -1.060715422165391e+01 -1.265954734024298e+01 3.200032719759637e-01 -6.327992383078098e+00 -4.616912897272630e+01 -9.338731817466107e-01 -1.008508171078740e+01 -2.530892889816408e+01 -2.815489187880196e+01
 -1.871478380686082e+01 -4.892486648472767e+01 -3.539245406084544e+01 -3.625352409175601e+01 -1.189658926588532e+01 -1.465542256083750e+01 -1.112561820559072e+01 -3.434027926049133e+01 -1.440898645423370e+01 -1.587470027121067e+01
 -7.148357033286536e+00 -3.486898111848369e+01 -2.674943037269490e+01 -4.818748092750167e+01 -1.291209720378635e+01 -1.341455718124150e+01 -3.048571890661918e+01 -4.713305202918462e+01 -1.391351372568205e+01 -1.514570669115900e+01
 -4.792995545985405e+01 -4.035849849791420e+01 -3.988261083764875e+01 -3.809956557664501e+01 -4.713305202918462e+01 -4.176060107064503e+01 -5.221027198386157e+00 -2.835287173228527e+01 -3.875501712233181e+01 -3.573857378802832e+01
 -1.801600698303638e+01 -3.776872917229905e+01 -3.180133033303319e+01 -2.933246719789357e+01 -4.252347005846082e+01 -2.468059240974892e+01 -4.904103885693455e+01 -3.815999573319138e+00 -4.699732714805763e+01 4.201348357296794e-01
 -4.546337965313187e+01 -2.383237258670795e+01 -3.504404881840005e+01 -4.993078537871932e+01 -3.416286838154864e+01 -3.457759422607043e-01 -2.231876655343581e+01 -1.086683611085910e+01 -4.191407880292945e+01 -2.715452144863110e+01
 -4.312571038122764e+01 -1.265954734024298e+01 -1.917653182347607e+01 -3.760252236582301e+01 -2.991209185375102e+01 -3.988261083764875e+01 -1.465542256083750e+01 -1.871478380686082e+01 -4.221967456967315e+01 -3.776872917229905e+01
 -4.357274207864924e+01 -3.362706017922554e+01 -4.312571038122764e+01 -1.291209720378635e+01 -4.312571038122764e+01 -3.198670916017659e+01 -1.808687991304012e+00 -4.372086970373246e+01 -2.361843444948929e+01 -3.539245406084544e+01
 -3.924125965997484e+01 -2.634147877417951e+01 -4.252347005846082e+01 -4.051616669245916e+01 -4.020035166670200e+01 -4.616912897272630e+01 -2.425798328046761e+01 -3.235557406968562e+01 -3.198670916017659e+01 -4.020035166670200e+01
 -4.221967456967315e+01 -4.937355791129749e+01 -4.114210755009064e+01 -4.083007816333932e+01 -3.180133033303319e+01 -3.504404881840005e+01 -4.430895308480505e+01 -3.326684312905160e+01 -3.726851579166281e+01 -4.941924016476563e+00
 -2.383237258670795e+01 -2.775684702512950e+01 -2.446966159559369e+01 -4.051616669245916e+01 -4.779949188234148e+01 -4.630867438463525e+01 -2.244115333388924e-02 -1.490099514104367e+01 -7.690604786693546e+00 -4.915473628524825e+01
 -3.809956557664501e+01 -3.693236417253544e+01 -7.148357033286536e+00 -2.530892889816408e+01 -9.030036859594604e+00 -1.986305238600788e+01 -3.161531638107989e+01 -1.189658926588532e+01 -4.221967456967315e+01 -2.634147877417951e+01
 -6.052663902755195e+00 -3.010396313703093e+01 -1.587470027121067e+01 -1.366447216019776e+01 -2.489077862384812e+01 -2.593064281952967e+01 -4.342417302109261e+01 -1.730978103324462e+01 -1.291209720378635e+01 -3.743578562529559e+01
 -4.560555305254605e+01 -4.957856859367242e+01 -2.572413579544952e+01 -4.191407880292945e+01 -3.247300733539400e+00 -1.189658926588532e+01 -4.753555454786721e+01 -4.843982627882723e+01 -4.460031759058317e+01 -3.776872917229905e+01
 -3.048571890661918e+01 -3.029517111845892e+01 -3.875501712233181e+01 -3.826420144694298e+01 -4.206710263816958e+01 -2.489077862384812e+01 -3.875501712233181e+01 -3.362706017922554e+01 -5.776394988423533e+00 -4.488986878548802e+01
 -4.630867438463525e+01 -4.004172339470273e+01 -1.240611433312998e+01 -3.532129954617940e+00 -3.326684312905160e+01 -1.341455718124150e+01 -2.855016059190610e+01 -1.112561820559072e+01 -3.180133033303319e+01 -3.924125965997484e+01
 -3.907968184184388e+01 -3.290418704784950e+01 -2.593064281952967e+01 -2.031669651204674e+01 -1.440898645423370e+01 -3.940233848417130e+01 -4.740221168928933e+01 -3.457808722067578e-01 -1.514570669115900e+01 -4.312571038122764e+01
 -3.308582155969017e+01 -3.972301111470061e+01 -2.468059240974892e+01 -2.735600177282639e+01 -7.419945638162506e+00 -3.086484636673450e+01 -3.659404210201060e+01 -4.560555305254605e+01 -2.775684702512950e+01 -4.658602252207274e+01
 -4.252347005846082e+01 -4.312571038122764e+01 -2.855016059190610e+01 -3.940233848417130e+01 -1.465542256083750e+01 -3.067560961597525e+01 -4.297581596041222e+01 -1.917653182347607e+01 -4.416259858788744e+01 -3.842831992584281e+01
 -1.008508171078740e+01 -9.559382072047550e+00 -8.763991441199639e+00 -1.848268149116181e+01 -1.490099514104367e+01 -4.221967456967315e+01 -2.318827826365377e+01 -3.532129954617940e+00 -4.947799582185575e+01 -2.099116261964327e+01
 -2.835287173228527e+01 -2.009027627051799e+01 -1.518057723089896e+00 -4.327516254957146e+01 -1.215179577442286e+01 -3.710070969843705e+01 -4.941924016476563e+00 -3.940233848417130e+01 -2.318827826365377e+01 -2.755677596037570e+01
 -4.160666733471443e+01 -3.591078459242403e+01 -4.856376628825748e+01 -3.573857378802832e+01 -5.000244184201221e+01 -2.572413579544952e+01 -3.875501712233181e+01 -6.602382605998328e+00 -4.985164823452120e+01 -4.237179646602599e+01
 -7.960336702906805e+00 -1.730978103324462e+01 -2.874676150778959e+01 -2.275506319161750e+01 -1.490099514104367e+01 -3.380626203710547e+01 -3.710070969843705e+01 -4.267469692688960e+01 -6.602382605998328e+00 -2.098346293350927e+00
 -3.086484636673450e+01 -8.497027782232514e+00 -9.030036859594604e+00 -4.401579888187925e+01 -3.451709954219465e+01 -3.988261083764875e+01 -2.209945559904496e+01 -2.383237258670795e+01 -2.835287173228527e+01 -4.474532172755866e+01
 -4.766800180619443e+01 -2.387034667106805e+00 -3.180133033303319e+01 -4.176060107064503e+01 -1.440898645423370e+01 -1.824975676413213e+01 -1.986305238600788e+01 -4.145227538558537e+01 -4.713305202918462e+01 -4.401579888187925e+01
 -3.308582155969017e+01 -4.985164823452120e+01 -4.004172339470273e+01 -3.344725493987107e+01 -3.380626203710547e+01 -3.457725062089942e-01 -4.282547848445164e+01 -1.778142951481535e+01 -3.573857378802832e+01 -7.690604786693546e+00
 -1.611599286025078e+01 -3.235557406968562e+01 -1.730978103324462e+01 -4.488986878548802e+01 -3.180133033303319e+01 -4.445486029561354e+01 -2.795621798838705e+01 -1.808687991304012e+00 -3.290418704784950e+01 -1.635643704786487e+01
 -2.165849440337601e+01 -4.818748092750167e+01 -3.924125965997484e+01 -1.871478380686082e+01 -2.143683858311904e+01 -3.521853873110602e+01 -2.613642282601977e+01 -3.235557406968562e+01 -4.843982627882723e+01 -3.842831992584281e+01
 -1.189658926588532e+01 -1.848268149116181e+01 -4.792995545985405e+01 -3.344725493987107e+01 -4.004172339470273e+01 -3.272193641294944e+01 -1.730978103324462e+01 -4.926568209529493e+01 -2.551689880264151e+01 -9.295166309353743e+00
 -4.532071647606367e+01 -4.892486648472767e+01 -4.672378011553452e+01 -2.971955416604622e+01 -1.164049241906194e+01 -3.556579801186393e+01 -4.766800180619443e+01 -1.801600698303638e+01 -3.048571890661918e+01 -7.148357033286536e+00
 -3.859192412009300e+01 -2.795621798838705e+01 -2.209945559904496e+01 -3.726851579166281e+01 -3.760252236582301e+01 -1.940618285806966e+01 -4.957856859367242e+01 -3.573857378802832e+01 -4.401579888187925e+01 -2.468059240974892e+01
 -1.240611433312998e+01 -4.661871788103882e+00 -4.083007816333932e+01 -1.518057723089896e+00 -4.792995545985405e+01 -2.231876655343581e+01 -1.316376634157931e+01 -3.029517111845892e+01 -3.380626203710547e+01 -7.960336702906805e+00
 -4.947799582185575e+01 -4.051616669245916e+01 -4.915473628524825e+01 -2.952634697748324e+01 -3.573857378802832e+01 -1.391351372568205e+01 -3.272193641294944e+01 -5.499183472896862e+00 -3.105343228470896e+01 -2.634147877417951e+01
 -9.030036859594604e+00 -3.344725493987107e+01 -2.098346293350927e+00 -2.674943037269490e+01 -4.937355791129749e+01 -9.295166309353743e+00 -4.941924016476563e+00 -2.143683858311904e+01 -1.265954734024298e+01 -4.129742292012192e+01
 -3.398486370617938e+01 -1.871478380686082e+01 -4.083007816333932e+01 -1.824975676413213e+01 -3.659404210201060e+01 -4.560555305254605e+01 -4.517757213285759e+01 -4.488986878548802e+01 -4.929528882315753e-02 -2.572413579544952e+01
 -7.690604786693546e+00 -4.588838956589118e+01 -3.842831992584281e+01 -4.856376628825748e+01 -2.674755159513384e+00 -4.145227538558537e+01 -1.490099514104367e+01 -3.642405918497901e+01 -2.076713695307155e+01 -1.538955971730359e+01
 -3.809956557664501e+01 -4.947799582185575e+01 -4.753555454786721e+01 -2.446966159559369e+01 -4.145227538558537e+01 -6.403148613935421e-01 -1.563255673540824e+01 -4.386855554475957e+01 -1.635643704786487e+01 -3.642405918497901e+01
 -4.160666733471443e+01 -4.967477729360967e+01 -3.451709954219465e+01 -4.892486648472767e+01 -4.160666733471443e+01 -2.775684702512950e+01 -2.297205450927749e+01 -5.776394988423533e+00 -4.372086970373246e+01 -1.940618285806966e+01
 -1.963502214864344e+01 -8.229143620374417e+00 -1.801600698303638e+01 -6.875836757563930e+00 -2.383237258670795e+01 -2.835287173228527e+01 -4.560555305254605e+01 -3.486898111848369e+01 -2.674943037269490e+01 -4.372086970373246e+01
 -7.148357033286536e+00 -1.635643704786487e+01 -4.546337965313187e+01 -3.235557406968562e+01 -3.434027926049133e+01 -4.602902850387139e+01 -3.760252236582301e+01 -3.469333242747486e+01 -4.880646048429150e+01 -2.340373729424545e+01
 -2.009027627051799e+01 -2.297205450927749e+01 -2.674755159513384e+00 -3.760252236582301e+01 -9.030036859594604e+00 -3.608243362692814e+01 -2.244115333388921e-02 -2.510022314734428e+01 -4.740221168928933e+01 -4.445486029561354e+01
 -2.530892889816408e+01 -3.793440919543957e+01 -6.052663902755195e+00 -3.469333242747486e+01 -5.499183472896862e+00 -4.941924016476563e+00 -1.848268149116181e+01 -2.489077862384812e+01 -3.793440919543957e+01 -3.625352409175601e+01
 -4.083007816333932e+01 -4.067335901038222e+01 -2.913791174349539e+01 -4.460031759058317e+01 -3.362706017922554e+01 -4.098632680985261e+01 -3.010396313703093e+01 -2.961509826605685e+00 -2.099116261964327e+01 -1.416168433474054e+01
 -1.226453459870227e+00 -4.713305202918462e+01 -1.341455718124150e+01 -2.695233198148027e+01 -4.753555454786721e+01 -1.138350285527005e+01 -4.546337965313187e+01 -2.613642282601977e+01 -2.572413579544952e+01 -3.988261083764875e+01
 -3.198670916017659e+01 -2.121439557732156e+01 -4.699732714805763e+01 -9.822686438896694e+00 -2.613642282601977e+01 -3.710070969843705e+01 -9.030036859594604e+00 -3.859192412009300e+01 -4.658602252207274e+01 -4.843982627882723e+01
 -2.795621798838705e+01 -3.556579801186393e+01 -2.991209185375102e+01 -4.672378011553452e+01 -2.361843444948929e+01 -3.726851579166281e+01 -2.031669651204674e+01 -9.295166309353743e+00 -2.404555457205659e+01 -3.272193641294944e+01
 -9.559382072047550e+00 -1.086683611085910e+01 -4.267469692688960e+01 -4.856376628825748e+01 -1.518057723089895e+00 -4.644764596962863e+01 -7.148357033286536e+00 -1.291209720378635e+01 -4.726802796359341e+01 -2.076713695307155e+01
 -4.357274207864924e+01 -4.430895308480505e+01 -1.465542256083750e+01 -6.875836757563930e+00 -4.766800180619443e+01 -4.430895308480505e+01 -4.947799582185575e+01 -3.809956557664501e+01 -4.831435556555631e+01 -1.490099514104367e+01
 -2.613642282601977e+01 -8.763991441199639e+00 -1.416168433474054e+01 -1.754602173610340e+01 -2.099116261964327e+01 -6.602382605998328e+00 -4.713305202918462e+01 -3.760252236582301e+01 -1.808687991304012e+00 -9.822686438896694e+00
 -2.715452144863110e+01 -2.815489187880196e+01 -9.822686438896694e+00 -5.499183472896862e+00 -4.602902850387139e+01 -2.009027627051799e+01 -4.753555454786721e+01 -2.593064281952967e+01 -2.297205450927749e+01 -3.086484636673450e+01
 -3.809956557664501e+01 -4.267469692688960e+01 -3.760252236582301e+01 -1.164049241906194e+01 -4.051616669245916e+01 -3.486898111848369e+01 -2.971955416604622e+01 -3.591078459242403e+01 -9.338731818217684e-01 -3.842831992584281e+01
 -4.574722679012729e+01 -3.726851579166281e+01 -4.753555454786721e+01 -2.551689880264151e+01 -4.831435556555631e+01 -2.815489187880196e+01 -1.848268149116181e+01 -4.145227538558537e+01 -8.229143620374417e+00 -4.993078537871932e+01
 -4.616912897272630e+01 -4.976603541754950e+01 -1.189658926588532e+01 -9.822686438896694e+00 -1.635643704786487e+01 -4.868603200025137e+01 -1.215179577442286e+01 -1.138350285527005e+01 -2.695233198148027e+01 -4.237179646602599e+01
 -2.468059240974892e+01 -2.098346293350927e+00 -2.098346293350927e+00 -1.940618285806966e+01 -4.929528882315754e-02 -2.446966159559369e+01 -3.988261083764875e+01 -1.518057723089895e+00 -3.760252236582301e+01 -4.574722679012729e+01
 -1.611599286025078e+01 -3.124137050117222e+01 -3.539245406084544e+01 -3.539245406084544e+01 -9.338731817466107e-01 -2.187936581372354e+01 -1.440898645423370e+01 -4.035849849791420e+01 -4.474532172755866e+01 -2.143683858311904e+01