DF-ISE text

Info {
  version = 1.1
  type    = grid
  dimension   = 3
  nb_vertices = 2355
  nb_edges    = 10742
  nb_faces    = 14696
  nb_elements = 6518
  nb_regions  = 27
  regions     = [ "gate" "oxide1" "gate1" "oxide2" "oxide3" "oxide4" "bulk" "cathode" "anode" "gate+oxide2" "gate+bulk" "gate+gate1" "gate+oxide4" "gate+oxide3" "gate+oxide1" "oxide1+gate1" "oxide1+oxide4" "oxide1+bulk" "oxide1+oxide3" "gate1+oxide2" "gate1+oxide4" "gate1+oxide3" "oxide2+oxide3" "oxide2+bulk" "oxide2+oxide4" "oxide3+bulk" "oxide4+bulk" ]
  materials   = [ Aluminum Al2O3 Aluminum Al2O3 Al2O3 Al2O3 CdTe Contact Contact Interface Interface Interface Interface Interface Interface Interface Interface Interface Interface Interface Interface Interface Interface Interface Interface Interface Interface ]
}

Data {

  CoordSystem {
    translate = [  0.000000000000000e+00 0.000000000000000e+00 0.000000000000000e+00 ]
    transform = [  1.000000000000000e+00 0.000000000000000e+00 0.000000000000000e+00
 0.000000000000000e+00 1.000000000000000e+00 0.000000000000000e+00
 0.000000000000000e+00 0.000000000000000e+00 1.000000000000000e+00
 ]
  }

  Vertices (2355) {
 5.000000000000000e-01 1.753032031250000e+02 5.000000000000000e-01
 5.000000000000000e-01 7.029528124999999e+02 1.000000000000000e+00
 1.000000000000000e+00 2.651990625000000e+02 1.000000000000000e+00
 1.000000000000000e+00 6.195625000000000e+01 0.000000000000000e+00
 5.000000000000000e-01 7.967571875000001e+02 0.000000000000000e+00
 0.000000000000000e+00 8.905615625000000e+02 5.000000000000000e-01
 0.000000000000000e+00 1.635776562500000e+02 0.000000000000000e+00
 1.000000000000000e+00 6.365080468750000e+02 0.000000000000000e+00
 0.000000000000000e+00 5.778803124999999e+02 5.000000000000000e-01
 1.000000000000000e+00 -0.000000000000000e+00 -0.000000000000000e+00
 5.000000000000000e-01 9.101041406250001e+02 0.000000000000000e+00
 1.000000000000000e+00 6.873187500000000e+02 1.000000000000000e+00
 0.000000000000000e+00 8.202082812500000e+02 0.000000000000000e+00
 1.000000000000000e+00 2.612905468750000e+02 1.000000000000000e+00
 0.000000000000000e+00 7.615805468750000e+02 5.000000000000000e-01
 0.000000000000000e+00 2.417479687500000e+02 5.000000000000000e-01
 0.000000000000000e+00 6.365080468750000e+02 1.000000000000000e+00
 1.000000000000000e+00 2.534735156250000e+02 5.000000000000000e-01
 0.000000000000000e+00 6.795017187500000e+02 1.000000000000000e+00
 1.000000000000000e+00 6.795017187500000e+02 1.000000000000000e+00
 0.000000000000000e+00 1.284010156250000e+02 5.000000000000000e-01
 0.000000000000000e+00 6.912272656250000e+02 5.000000000000000e-01
 1.000000000000000e+00 4.332652343750000e+02 1.000000000000000e+00
 5.000000000000000e-01 7.850316406250001e+02 5.000000000000000e-01
 1.000000000000000e+00 3.121012500000000e+02 1.000000000000000e+00
 1.000000000000000e+00 7.811231250000001e+02 5.000000000000000e-01
 5.000000000000000e-01 3.081927343750000e+02 1.000000000000000e+00
 1.000000000000000e+00 1.088584375000000e+02 5.000000000000000e-01
 1.000000000000000e+00 2.026628125000000e+02 5.000000000000000e-01
 1.000000000000000e+00 6.286910156250001e+02 1.000000000000000e+00
 0.000000000000000e+00 3.459664062500000e+01 1.000000000000000e+00
 1.000000000000000e+00 3.355523437500000e+02 1.000000000000000e+00
 5.000000000000000e-01 4.254482031250000e+02 5.000000000000000e-01
 1.000000000000000e+00 9.960914843749999e+02 1.000000000000000e+00
 5.000000000000000e-01 8.202082812500000e+02 5.000000000000000e-01
 5.000000000000000e-01 1.635776562500000e+02 1.000000000000000e+00
 1.000000000000000e+00 2.847416406250000e+02 1.000000000000000e+00
 5.000000000000000e-01 4.997100000000000e+02 0.000000000000000e+00
 1.000000000000000e+00 2.104798437500000e+02 0.000000000000000e+00
 5.000000000000000e-01 9.452807812500000e+02 5.000000000000000e-01
 5.000000000000000e-01 2.925586718750000e+02 0.000000000000000e+00
 1.000000000000000e+00 3.511864062500000e+02 1.000000000000000e+00
 1.000000000000000e+00 1.948457812500000e+02 5.000000000000000e-01
 1.000000000000000e+00 7.576720312500000e+02 0.000000000000000e+00
 1.000000000000000e+00 5.739717968750000e+02 1.000000000000000e+00
 5.000000000000000e-01 8.436593750000000e+02 5.000000000000000e-01
 5.000000000000000e-01 9.452807812500000e+02 0.000000000000000e+00
 0.000000000000000e+00 3.824545312499999e+02 0.000000000000000e+00
 5.000000000000000e-01 7.967571875000001e+02 5.000000000000000e-01
 0.000000000000000e+00 5.348866406249999e+02 5.000000000000000e-01
 0.000000000000000e+00 4.254482031250000e+02 0.000000000000000e+00
 0.000000000000000e+00 5.231610937500000e+02 5.000000000000000e-01
 0.000000000000000e+00 1.049499218750000e+02 5.000000000000000e-01
 5.000000000000000e-01 5.387951562500000e+02 5.000000000000000e-01
 1.000000000000000e+00 8.931585937500000e+01 1.000000000000000e+00
 5.000000000000000e-01 8.280253124999999e+02 5.000000000000000e-01
 5.000000000000000e-01 2.534735156250000e+02 0.000000000000000e+00
 1.000000000000000e+00 6.716846875000001e+02 1.000000000000000e+00
 1.000000000000000e+00 7.264039062500000e+02 0.000000000000000e+00
 1.000000000000000e+00 7.342209375000000e+02 0.000000000000000e+00
 0.000000000000000e+00 3.355523437500000e+02 0.000000000000000e+00
 5.000000000000000e-01 1.049499218750000e+02 1.000000000000000e+00
 0.000000000000000e+00 1.987542968750000e+02 0.000000000000000e+00
 0.000000000000000e+00 6.990442968750000e+02 0.000000000000000e+00
 5.000000000000000e-01 6.755932031250001e+02 0.000000000000000e+00
 1.000000000000000e+00 5.622462500000000e+02 0.000000000000000e+00
 0.000000000000000e+00 8.944700781250001e+02 1.000000000000000e+00
 1.000000000000000e+00 5.661547656250000e+02 1.000000000000000e+00
 0.000000000000000e+00 7.889401562500001e+02 5.000000000000000e-01
 0.000000000000000e+00 2.534735156250000e+02 1.000000000000000e+00
 0.000000000000000e+00 8.162997656250000e+02 0.000000000000000e+00
 1.000000000000000e+00 9.648233593749999e+02 5.000000000000000e-01
 1.000000000000000e+00 9.530978124999999e+02 0.000000000000000e+00
 1.000000000000000e+00 8.045742187500000e+02 0.000000000000000e+00
 5.000000000000000e-01 4.632218750000000e+01 0.000000000000000e+00
 1.000000000000000e+00 2.300224218750000e+02 0.000000000000000e+00
 1.000000000000000e+00 2.026628125000000e+02 0.000000000000000e+00
 5.000000000000000e-01 4.137226562500000e+02 0.000000000000000e+00
 1.000000000000000e+00 5.114355468749999e+02 5.000000000000000e-01
 5.000000000000000e-01 6.977328125000000e+01 1.000000000000000e+00
 5.000000000000000e-01 9.452807812500000e+02 1.000000000000000e+00
 1.000000000000000e+00 5.114355468749999e+02 0.000000000000000e+00
 1.000000000000000e+00 5.856973437500000e+02 0.000000000000000e+00
 6.000000000000000e-01 0.000000000000000e+00 5.000000000000000e-01
 1.000000000000000e+00 2.261139062500000e+02 0.000000000000000e+00
 0.000000000000000e+00 5.466121875000000e+02 1.000000000000000e+00
 5.000000000000000e-01 6.599591406250001e+02 5.000000000000000e-01
 5.000000000000000e-01 4.840759375000000e+02 5.000000000000000e-01
 0.000000000000000e+00 6.977328125000000e+01 0.000000000000000e+00
 5.000000000000000e-01 5.505207031250000e+02 5.000000000000000e-01
 0.000000000000000e+00 1.362180468750000e+02 1.000000000000000e+00
 0.000000000000000e+00 4.019971093750000e+02 5.000000000000000e-01
 1.000000000000000e+00 9.335552343750001e+02 0.000000000000000e+00
 5.000000000000000e-01 8.553849218749999e+02 1.000000000000000e+00
 1.000000000000000e+00 2.417479687500000e+02 5.000000000000000e-01
 1.000000000000000e+00 1.635776562500000e+02 5.000000000000000e-01
 0.000000000000000e+00 6.013314062500000e+02 1.000000000000000e+00
 0.000000000000000e+00 2.378394531250000e+02 1.000000000000000e+00
 5.000000000000000e-01 7.459464843750000e+02 5.000000000000000e-01
 5.000000000000000e-01 1.635776562500000e+02 5.000000000000000e-01
 0.000000000000000e+00 2.886501562500000e+02 1.000000000000000e+00
 0.000000000000000e+00 5.192525781249999e+02 0.000000000000000e+00
 1.000000000000000e+00 1.831202343750000e+02 1.000000000000000e+00
 1.000000000000000e+00 8.475678906250000e+02 1.000000000000000e+00
 5.000000000000000e-01 4.215396875000000e+02 5.000000000000000e-01
 1.000000000000000e+00 7.237031250000000e+00 0.000000000000000e+00
 0.000000000000000e+00 6.638676562500001e+02 5.000000000000000e-01
 5.000000000000000e-01 1.284010156250000e+02 1.000000000000000e+00
 5.000000000000000e-01 6.951357812500000e+02 1.000000000000000e+00
 0.000000000000000e+00 6.208739843750000e+02 0.000000000000000e+00
 0.000000000000000e+00 3.980885937500000e+02 0.000000000000000e+00
 1.000000000000000e+00 6.521421093750000e+02 0.000000000000000e+00
 1.000000000000000e+00 8.866530468750000e+02 1.000000000000000e+00
 1.000000000000000e+00 9.101041406250001e+02 5.000000000000000e-01
 0.000000000000000e+00 1.596691406250000e+02 0.000000000000000e+00
 1.000000000000000e+00 3.590034375000000e+02 5.000000000000000e-01
 5.000000000000000e-01 7.498550000000000e+02 1.000000000000000e+00
 0.000000000000000e+00 6.365080468750000e+02 5.000000000000000e-01
 1.000000000000000e+00 6.560506250000001e+02 0.000000000000000e+00
 0.000000000000000e+00 3.081927343750000e+02 5.000000000000000e-01
 1.000000000000000e+00 9.374637500000000e+02 5.000000000000000e-01
 5.000000000000000e-01 1.987542968750000e+02 0.000000000000000e+00
 1.000000000000000e+00 1.127669531250000e+02 5.000000000000000e-01
 0.000000000000000e+00 6.169654687500000e+02 1.000000000000000e+00
 1.000000000000000e+00 6.443250781250001e+02 1.000000000000000e+00
 1.000000000000000e+00 3.394608593750000e+02 0.000000000000000e+00
 1.000000000000000e+00 7.368179687500000e+01 0.000000000000000e+00
 5.000000000000000e-01 4.528078125000000e+02 0.000000000000000e+00
 5.000000000000000e-01 1.440350781250000e+02 5.000000000000000e-01
 1.000000000000000e+00 7.029528124999999e+02 0.000000000000000e+00
 1.000000000000000e+00 3.902715625000000e+02 1.000000000000000e+00
 1.000000000000000e+00 9.726403906250000e+02 1.000000000000000e+00
 0.000000000000000e+00 3.746375000000000e+02 1.000000000000000e+00
 0.000000000000000e+00 4.254482031250000e+02 5.000000000000000e-01
 1.000000000000000e+00 9.804574218749999e+02 0.000000000000000e+00
 0.000000000000000e+00 8.540734375000000e+01 0.000000000000000e+00
 0.000000000000000e+00 7.264039062500000e+02 0.000000000000000e+00
 5.000000000000000e-01 9.335552343750001e+02 5.000000000000000e-01
 1.000000000000000e+00 8.632019531250000e+02 5.000000000000000e-01
 5.000000000000000e-01 1.166754687500000e+02 1.000000000000000e+00
 5.000000000000000e-01 6.013314062500000e+02 5.000000000000000e-01
 1.000000000000000e+00 8.084827343750001e+02 1.000000000000000e+00
 1.000000000000000e+00 1.166754687500000e+02 0.000000000000000e+00
 5.000000000000000e-01 5.661547656250000e+02 5.000000000000000e-01
 5.000000000000000e-01 1.049499218750000e+02 0.000000000000000e+00
 0.000000000000000e+00 9.882744531250000e+02 1.000000000000000e+00
 5.000000000000000e-01 6.677761718750000e+02 0.000000000000000e+00
 0.000000000000000e+00 1.635776562500000e+02 1.000000000000000e+00
 1.000000000000000e+00 8.149882812499999e+01 5.000000000000000e-01
 0.000000000000000e+00 7.068613281250000e+02 0.000000000000000e+00
 0.000000000000000e+00 1.166754687500000e+02 0.000000000000000e+00
 1.000000000000000e+00 4.958014843750000e+02 5.000000000000000e-01
 1.000000000000000e+00 8.905615625000000e+02 5.000000000000000e-01
 5.000000000000000e-01 2.847416406250000e+02 5.000000000000000e-01
 0.000000000000000e+00 7.967571875000001e+02 0.000000000000000e+00
 5.000000000000000e-01 6.195625000000000e+01 1.000000000000000e+00
 5.000000000000000e-01 2.065713281250000e+02 0.000000000000000e+00
 1.000000000000000e+00 9.296467187500000e+02 0.000000000000000e+00
 1.000000000000000e+00 3.277353125000000e+02 5.000000000000000e-01
 0.000000000000000e+00 8.827445312500000e+02 5.000000000000000e-01
 0.000000000000000e+00 5.778803124999999e+02 0.000000000000000e+00
 1.000000000000000e+00 9.179211718750000e+02 0.000000000000000e+00
 5.000000000000000e-01 1.479435937500000e+02 1.000000000000000e+00
 5.000000000000000e-01 8.319338281250000e+02 1.000000000000000e+00
 1.000000000000000e+00 6.951357812500000e+02 0.000000000000000e+00
 1.000000000000000e+00 4.879844531250000e+02 1.000000000000000e+00
 5.000000000000000e-01 7.759031250000000e+01 0.000000000000000e+00
 1.000000000000000e+00 7.811231250000001e+02 1.000000000000000e+00
 1.000000000000000e+00 7.185868750000000e+02 5.000000000000000e-01
 5.000000000000000e-01 7.146783593749999e+02 0.000000000000000e+00
 5.000000000000000e-01 2.730160937500000e+02 1.000000000000000e+00
 0.000000000000000e+00 4.293567187500000e+02 5.000000000000000e-01
 1.000000000000000e+00 9.843659375000000e+02 5.000000000000000e-01
 0.000000000000000e+00 8.710189843749999e+02 5.000000000000000e-01
 0.000000000000000e+00 2.651990625000000e+02 1.000000000000000e+00
 0.000000000000000e+00 4.215396875000000e+02 0.000000000000000e+00
 1.000000000000000e+00 5.622462500000000e+02 5.000000000000000e-01
 1.000000000000000e+00 2.730160937500000e+02 0.000000000000000e+00
 0.000000000000000e+00 8.475678906250000e+02 1.000000000000000e+00
 0.000000000000000e+00 7.264039062500000e+02 1.000000000000000e+00
 0.000000000000000e+00 6.755932031250001e+02 1.000000000000000e+00
 1.000000000000000e+00 5.309781250000000e+02 1.000000000000000e+00
 1.000000000000000e+00 8.123912500000000e+02 5.000000000000000e-01
 1.000000000000000e+00 9.061956250000001e+02 5.000000000000000e-01
 0.000000000000000e+00 2.925586718750000e+02 5.000000000000000e-01
 0.000000000000000e+00 6.404165625000001e+02 5.000000000000000e-01
 0.000000000000000e+00 2.026628125000000e+02 0.000000000000000e+00
 5.000000000000000e-01 7.772146093750000e+02 5.000000000000000e-01
 0.000000000000000e+00 2.691075781250000e+02 5.000000000000000e-01
 0.000000000000000e+00 1.909372656250000e+02 0.000000000000000e+00
 0.000000000000000e+00 8.202082812500000e+02 1.000000000000000e+00
 0.000000000000000e+00 2.495650000000000e+02 1.000000000000000e+00
 5.000000000000000e-01 6.443250781250001e+02 0.000000000000000e+00
 1.000000000000000e+00 9.921829687500000e+02 0.000000000000000e+00
 5.000000000000000e-01 7.420379687500000e+02 5.000000000000000e-01
 0.000000000000000e+00 9.960914843749999e+02 1.000000000000000e+00
 0.000000000000000e+00 1.049499218750000e+02 1.000000000000000e+00
 0.000000000000000e+00 5.413921875000000e+01 0.000000000000000e+00
 1.000000000000000e+00 4.879844531250000e+02 5.000000000000000e-01
 1.000000000000000e+00 5.661547656250000e+02 0.000000000000000e+00
 0.000000000000000e+00 8.905615625000000e+02 0.000000000000000e+00
 1.000000000000000e+00 6.365080468750000e+02 1.000000000000000e+00
 1.000000000000000e+00 4.019971093750000e+02 5.000000000000000e-01
 1.000000000000000e+00 7.498550000000000e+02 1.000000000000000e+00
 1.000000000000000e+00 1.244925000000000e+02 0.000000000000000e+00
 1.000000000000000e+00 7.759031250000000e+01 1.000000000000000e+00
 1.000000000000000e+00 5.935143750000000e+02 1.000000000000000e+00
 5.000000000000000e-01 4.918929687500000e+02 0.000000000000000e+00
 0.000000000000000e+00 5.935143750000000e+02 0.000000000000000e+00
 0.000000000000000e+00 2.456564843750000e+02 5.000000000000000e-01
 0.000000000000000e+00 8.944700781250001e+02 0.000000000000000e+00
 1.000000000000000e+00 9.882744531250000e+02 5.000000000000000e-01
 0.000000000000000e+00 8.632019531250000e+02 0.000000000000000e+00
 5.000000000000000e-01 6.325995312500000e+02 5.000000000000000e-01
 0.000000000000000e+00 5.309781250000000e+02 0.000000000000000e+00
 1.000000000000000e+00 5.544292187500000e+02 1.000000000000000e+00
 0.000000000000000e+00 2.339309375000000e+02 0.000000000000000e+00
 1.000000000000000e+00 4.215396875000000e+02 5.000000000000000e-01
 1.000000000000000e+00 1.440350781250000e+02 1.000000000000000e+00
 5.000000000000000e-01 9.804574218749999e+02 1.000000000000000e+00
 0.000000000000000e+00 2.287109375000000e+01 0.000000000000000e+00
 1.000000000000000e+00 3.316438281250000e+02 1.000000000000000e+00
 5.000000000000000e-01 3.668204687500000e+02 0.000000000000000e+00
 1.000000000000000e+00 2.495650000000000e+02 0.000000000000000e+00
 1.000000000000000e+00 4.684418750000000e+02 0.000000000000000e+00
 5.000000000000000e-01 3.824545312499999e+02 0.000000000000000e+00
 5.000000000000000e-01 7.615805468750000e+02 0.000000000000000e+00
 5.000000000000000e-01 1.114554687500000e+01 0.000000000000000e+00
 1.000000000000000e+00 1.713946875000000e+02 0.000000000000000e+00
 1.000000000000000e+00 4.019971093750000e+02 1.000000000000000e+00
 5.000000000000000e-01 9.257382031250000e+02 1.000000000000000e+00
 5.000000000000000e-01 5.075270312499999e+02 0.000000000000000e+00
 1.000000000000000e+00 3.433693750000000e+02 5.000000000000000e-01
 1.000000000000000e+00 1.401265625000000e+02 0.000000000000000e+00
 1.000000000000000e+00 3.238267968750000e+02 5.000000000000000e-01
 0.000000000000000e+00 9.726403906250000e+02 1.000000000000000e+00
 1.000000000000000e+00 8.827445312500000e+02 1.000000000000000e+00
 1.000000000000000e+00 6.325995312500000e+02 0.000000000000000e+00
 5.000000000000000e-01 6.755932031250001e+02 5.000000000000000e-01
 1.000000000000000e+00 5.270696093750000e+02 0.000000000000000e+00
 1.000000000000000e+00 8.241167968750000e+02 1.000000000000000e+00
 0.000000000000000e+00 9.687318749999999e+02 1.000000000000000e+00
 5.000000000000000e-01 3.629119531250000e+02 0.000000000000000e+00
 0.000000000000000e+00 7.615805468750000e+02 0.000000000000000e+00
 5.000000000000000e-01 1.244925000000000e+02 1.000000000000000e+00
 0.000000000000000e+00 8.983785937500001e+02 5.000000000000000e-01
 5.000000000000000e-01 5.192525781249999e+02 0.000000000000000e+00
 5.000000000000000e-01 3.433693750000000e+02 0.000000000000000e+00
 0.000000000000000e+00 6.912272656250000e+02 1.000000000000000e+00
 0.000000000000000e+00 9.921829687500000e+02 0.000000000000000e+00
 1.000000000000000e+00 1.505406250000000e+01 0.000000000000000e+00
 1.000000000000000e+00 3.850515625000000e+01 0.000000000000000e+00
 0.000000000000000e+00 7.107698437499999e+02 5.000000000000000e-01
 1.000000000000000e+00 4.410822656250000e+02 5.000000000000000e-01
 1.000000000000000e+00 8.553849218749999e+02 1.000000000000000e+00
 1.000000000000000e+00 1.909372656250000e+02 0.000000000000000e+00
 5.000000000000000e-01 6.365080468750000e+02 0.000000000000000e+00
 1.000000000000000e+00 3.472778906250000e+02 5.000000000000000e-01
 5.000000000000000e-01 2.808331250000000e+02 5.000000000000000e-01
 1.000000000000000e+00 1.753032031250000e+02 5.000000000000000e-01
 0.000000000000000e+00 2.222053906250000e+02 5.000000000000000e-01
 0.000000000000000e+00 5.661547656250000e+02 5.000000000000000e-01
 0.000000000000000e+00 3.003757031250000e+02 5.000000000000000e-01
 0.000000000000000e+00 3.042842187500000e+02 0.000000000000000e+00
 0.000000000000000e+00 -8.000000000000000e-02 5.000000000000000e-01
 1.000000000000000e+00 5.466121875000000e+02 1.000000000000000e+00
 5.000000000000000e-01 8.827445312500000e+02 0.000000000000000e+00
 0.000000000000000e+00 8.436593750000000e+02 1.000000000000000e+00
 1.000000000000000e+00 8.319338281250000e+02 0.000000000000000e+00
 5.000000000000000e-01 1.244925000000000e+02 5.000000000000000e-01
 5.000000000000000e-01 7.368179687500000e+01 1.000000000000000e+00
 0.000000000000000e+00 8.866530468750000e+02 0.000000000000000e+00
 5.000000000000000e-01 5.817888281250000e+02 1.000000000000000e+00
 1.000000000000000e+00 2.143883593750000e+02 0.000000000000000e+00
 5.000000000000000e-01 2.964671875000000e+02 0.000000000000000e+00
 5.000000000000000e-01 1.114554687500000e+01 1.000000000000000e+00
 5.000000000000000e-01 6.325995312500000e+02 1.000000000000000e+00
 5.000000000000000e-01 2.964671875000000e+02 1.000000000000000e+00
 0.000000000000000e+00 3.941800781250000e+02 0.000000000000000e+00
 5.000000000000000e-01 3.550949218750000e+02 0.000000000000000e+00
 5.000000000000000e-01 6.208739843750000e+02 1.000000000000000e+00
 5.000000000000000e-01 8.931585937500000e+01 1.000000000000000e+00
 1.000000000000000e+00 9.218296875000001e+02 0.000000000000000e+00
 0.000000000000000e+00 9.491892968750000e+02 1.000000000000000e+00
 1.000000000000000e+00 8.671104687500000e+02 0.000000000000000e+00
 1.000000000000000e+00 2.677960937500000e+01 1.000000000000000e+00
 5.000000000000000e-01 2.573820312500000e+02 1.000000000000000e+00
 1.000000000000000e+00 8.632019531250000e+02 0.000000000000000e+00
 5.000000000000000e-01 8.983785937500001e+02 0.000000000000000e+00
 1.000000000000000e+00 8.475678906250000e+02 5.000000000000000e-01
 0.000000000000000e+00 4.840759375000000e+02 0.000000000000000e+00
 0.000000000000000e+00 9.296467187500000e+02 0.000000000000000e+00
 1.000000000000000e+00 1.896257812500000e+01 0.000000000000000e+00
 1.000000000000000e+00 2.261139062500000e+02 5.000000000000000e-01
 0.000000000000000e+00 4.567163281250000e+02 5.000000000000000e-01
 1.000000000000000e+00 3.511864062500000e+02 0.000000000000000e+00
 5.000000000000000e-01 2.495650000000000e+02 0.000000000000000e+00
 0.000000000000000e+00 7.420379687500000e+02 5.000000000000000e-01
 1.000000000000000e+00 1.987542968750000e+02 1.000000000000000e+00
 0.000000000000000e+00 4.176311718750000e+02 0.000000000000000e+00
 0.000000000000000e+00 6.286910156250001e+02 0.000000000000000e+00
 1.000000000000000e+00 4.241367187500000e+01 1.000000000000000e+00
 0.000000000000000e+00 8.592934375000000e+02 5.000000000000000e-01
 5.000000000000000e-01 9.257382031250000e+02 5.000000000000000e-01
 5.000000000000000e-01 4.410822656250000e+02 1.000000000000000e+00
 5.000000000000000e-01 9.648233593749999e+02 1.000000000000000e+00
 1.000000000000000e+00 9.530978124999999e+02 1.000000000000000e+00
 0.000000000000000e+00 9.921829687500000e+02 5.000000000000000e-01
 5.000000000000000e-01 5.583377343750001e+02 5.000000000000000e-01
 1.000000000000000e+00 6.755932031250001e+02 1.000000000000000e+00
 1.000000000000000e+00 5.778803124999999e+02 5.000000000000000e-01
 5.000000000000000e-01 6.677761718750000e+02 5.000000000000000e-01
 1.000000000000000e+00 6.912272656250000e+02 1.000000000000000e+00
 0.000000000000000e+00 1.870287500000000e+02 1.000000000000000e+00
 0.000000000000000e+00 3.472778906250000e+02 0.000000000000000e+00
 1.000000000000000e+00 7.576720312500000e+02 1.000000000000000e+00
 0.000000000000000e+00 7.368179687500000e+01 0.000000000000000e+00
 0.000000000000000e+00 8.280253124999999e+02 0.000000000000000e+00
 5.000000000000000e-01 5.974228906250000e+02 5.000000000000000e-01
 1.000000000000000e+00 8.358423437499999e+02 1.000000000000000e+00
 0.000000000000000e+00 8.006657031250001e+02 1.000000000000000e+00
 1.000000000000000e+00 9.374637500000000e+02 0.000000000000000e+00
 5.000000000000000e-01 9.804574218749999e+02 5.000000000000000e-01
 0.000000000000000e+00 5.817888281250000e+02 0.000000000000000e+00
 5.000000000000000e-01 6.195625000000000e+01 0.000000000000000e+00
 5.000000000000000e-01 4.879844531250000e+02 1.000000000000000e+00
 0.000000000000000e+00 5.427036718750001e+02 1.000000000000000e+00
 5.000000000000000e-01 6.365080468750000e+02 5.000000000000000e-01
 1.000000000000000e+00 7.889401562500001e+02 0.000000000000000e+00
 1.000000000000000e+00 3.550949218750000e+02 0.000000000000000e+00
 0.000000000000000e+00 5.935143750000000e+02 1.000000000000000e+00
 0.000000000000000e+00 5.075270312499999e+02 5.000000000000000e-01
 5.000000000000000e-01 7.224953906250000e+02 1.000000000000000e+00
 1.000000000000000e+00 1.518521093750000e+02 5.000000000000000e-01
 1.000000000000000e+00 7.420379687500000e+02 1.000000000000000e+00
 5.000000000000000e-01 5.896058593749999e+02 1.000000000000000e+00
 1.000000000000000e+00 6.208739843750000e+02 5.000000000000000e-01
 1.000000000000000e+00 7.459464843750000e+02 5.000000000000000e-01
 0.000000000000000e+00 5.023070312500000e+01 1.000000000000000e+00
 5.000000000000000e-01 5.583377343750001e+02 1.000000000000000e+00
 1.000000000000000e+00 6.521421093750000e+02 1.000000000000000e+00
 0.000000000000000e+00 7.303124218749999e+02 0.000000000000000e+00
 1.000000000000000e+00 3.980885937500000e+02 5.000000000000000e-01
 5.000000000000000e-01 6.404165625000001e+02 1.000000000000000e+00
 5.000000000000000e-01 4.645333593750000e+02 5.000000000000000e-01
 0.000000000000000e+00 1.114554687500000e+01 0.000000000000000e+00
 0.000000000000000e+00 5.348866406249999e+02 0.000000000000000e+00
 1.000000000000000e+00 5.192525781249999e+02 1.000000000000000e+00
 1.000000000000000e+00 7.850316406250001e+02 1.000000000000000e+00
 0.000000000000000e+00 4.997100000000000e+02 1.000000000000000e+00
 0.000000000000000e+00 1.896257812500000e+01 1.000000000000000e+00
 0.000000000000000e+00 4.215396875000000e+02 5.000000000000000e-01
 1.000000000000000e+00 2.964671875000000e+02 1.000000000000000e+00
 1.000000000000000e+00 9.687318749999999e+02 1.000000000000000e+00
 5.000000000000000e-01 -8.000000000000000e-02 4.000000000000000e-01
 0.000000000000000e+00 9.530978124999999e+02 5.000000000000000e-01
 0.000000000000000e+00 9.804574218749999e+02 0.000000000000000e+00
 5.000000000000000e-01 6.091484375000000e+02 1.000000000000000e+00
 5.000000000000000e-01 9.296467187500000e+02 5.000000000000000e-01
 0.000000000000000e+00 4.918929687500000e+02 0.000000000000000e+00
 1.000000000000000e+00 3.068812500000000e+01 5.000000000000000e-01
 0.000000000000000e+00 3.511864062500000e+02 5.000000000000000e-01
 0.000000000000000e+00 4.371737500000000e+02 1.000000000000000e+00
 5.000000000000000e-01 7.342209375000000e+02 0.000000000000000e+00
 0.000000000000000e+00 6.638676562500001e+02 0.000000000000000e+00
 0.000000000000000e+00 3.707289843750000e+02 5.000000000000000e-01
 0.000000000000000e+00 8.592934375000000e+02 1.000000000000000e+00
 1.000000000000000e+00 3.941800781250000e+02 5.000000000000000e-01
 1.000000000000000e+00 8.319338281250000e+02 1.000000000000000e+00
 5.000000000000000e-01 1.127669531250000e+02 1.000000000000000e+00
 1.000000000000000e+00 8.241167968750000e+02 5.000000000000000e-01
 0.000000000000000e+00 5.739717968750000e+02 5.000000000000000e-01
 0.000000000000000e+00 9.609148437499999e+02 1.000000000000000e+00
 0.000000000000000e+00 2.222053906250000e+02 1.000000000000000e+00
 5.000000000000000e-01 8.514764062500000e+02 1.000000000000000e+00
 5.000000000000000e-01 3.160097656250000e+02 5.000000000000000e-01
 0.000000000000000e+00 5.231610937500000e+02 0.000000000000000e+00
 1.000000000000000e+00 6.599591406250001e+02 0.000000000000000e+00
 0.000000000000000e+00 5.036185156250000e+02 5.000000000000000e-01
 5.000000000000000e-01 6.052399218749999e+02 0.000000000000000e+00
 5.000000000000000e-01 0.000000000000000e+00 0.000000000000000e+00
 0.000000000000000e+00 6.247825000000000e+02 5.000000000000000e-01
 5.000000000000000e-01 8.358423437499999e+02 0.000000000000000e+00
 5.000000000000000e-01 3.902715625000000e+02 0.000000000000000e+00
 0.000000000000000e+00 1.987542968750000e+02 5.000000000000000e-01
 0.000000000000000e+00 1.792117187500000e+02 0.000000000000000e+00
 1.000000000000000e+00 3.590034375000000e+02 1.000000000000000e+00
 5.000000000000000e-01 3.081927343750000e+02 5.000000000000000e-01
 1.000000000000000e+00 1.987542968750000e+02 5.000000000000000e-01
 1.000000000000000e+00 4.215396875000000e+02 0.000000000000000e+00
 1.000000000000000e+00 7.068613281250000e+02 0.000000000000000e+00
 1.000000000000000e+00 3.277353125000000e+02 1.000000000000000e+00
 5.000000000000000e-01 -8.000000000000000e-02 6.000000000000000e-01
 1.000000000000000e+00 9.374637500000000e+02 1.000000000000000e+00
 0.000000000000000e+00 1.792117187500000e+02 1.000000000000000e+00
 1.000000000000000e+00 3.746375000000000e+02 0.000000000000000e+00
 4.000000000000000e-01 -8.000000000000000e-02 -0.000000000000000e+00
 1.000000000000000e+00 8.514764062500000e+02 1.000000000000000e+00
 5.000000000000000e-01 2.534735156250000e+02 5.000000000000000e-01
 5.000000000000000e-01 9.218296875000001e+02 1.000000000000000e+00
 0.000000000000000e+00 3.850515625000000e+01 0.000000000000000e+00
 0.000000000000000e+00 1.987542968750000e+02 1.000000000000000e+00
 1.000000000000000e+00 4.840759375000000e+02 1.000000000000000e+00
 5.000000000000000e-01 6.716846875000001e+02 0.000000000000000e+00
 0.000000000000000e+00 1.000000000000000e+03 5.000000000000000e-01
 5.000000000000000e-01 1.505406250000000e+01 0.000000000000000e+00
 0.000000000000000e+00 1.831202343750000e+02 0.000000000000000e+00
 0.000000000000000e+00 7.654890625000000e+02 1.000000000000000e+00
 0.000000000000000e+00 8.045742187500000e+02 1.000000000000000e+00
 5.000000000000000e-01 3.511864062500000e+02 5.000000000000000e-01
 0.000000000000000e+00 6.912272656250000e+02 0.000000000000000e+00
 1.000000000000000e+00 8.006657031250001e+02 5.000000000000000e-01
 1.000000000000000e+00 9.804574218749999e+02 5.000000000000000e-01
 5.000000000000000e-01 3.850515625000000e+01 1.000000000000000e+00
 5.000000000000000e-01 2.677960937500000e+01 0.000000000000000e+00
 5.000000000000000e-01 1.000000000000000e+03 5.000000000000000e-01
 1.000000000000000e+00 8.280253124999999e+02 1.000000000000000e+00
 5.000000000000000e-01 1.596691406250000e+02 1.000000000000000e+00
 1.000000000000000e+00 5.413921875000000e+01 5.000000000000000e-01
 0.000000000000000e+00 3.980885937500000e+02 5.000000000000000e-01
 5.000000000000000e-01 5.778803124999999e+02 0.000000000000000e+00
 5.000000000000000e-01 4.488992968749999e+02 1.000000000000000e+00
 5.000000000000000e-01 2.378394531250000e+02 5.000000000000000e-01
 5.000000000000000e-01 5.427036718750001e+02 0.000000000000000e+00
 1.000000000000000e+00 2.847416406250000e+02 5.000000000000000e-01
 0.000000000000000e+00 3.668204687500000e+02 0.000000000000000e+00
 0.000000000000000e+00 5.114355468749999e+02 5.000000000000000e-01
 1.000000000000000e+00 7.733060937500001e+02 5.000000000000000e-01
 0.000000000000000e+00 7.224953906250000e+02 0.000000000000000e+00
 -0.000000000000000e+00 1.000000000000000e+03 -0.000000000000000e+00